<?xml version="1.0"?>
<VTKFile type="UnstructuredGrid"  version="0.1"  >
<UnstructuredGrid>
<Piece  NumberOfPoints="123" NumberOfCells="212">
<Points>
<DataArray  type="Float64"  NumberOfComponents="3"  format="ascii">0 1 0  0 -1 0  1 0 0  -1 0 0  -0.1950903220158731 0.9807852804032812 0  -0.3826834323643665 0.9238795325115864 0  -0.5555702330184784 0.8314696123032962 0  -0.707106781185206 0.7071067811878892 0  -0.8314696123017388 0.5555702330208091 0  -0.9238795325109728 0.3826834323658478 0  -0.9807852804031804 0.1950903220163801 0  -0.9807852804032812 -0.1950903220158731 0  -0.9238795325115864 -0.3826834323643665 0  -0.8314696123032962 -0.5555702330184784 0  -0.7071067811878892 -0.707106781185206 0  -0.5555702330208091 -0.8314696123017388 0  -0.3826834323658478 -0.9238795325109728 0  -0.1950903220163801 -0.9807852804031804 0  0.1950903220158731 -0.9807852804032812 0  0.3826834323643665 -0.9238795325115864 0  0.5555702330184784 -0.8314696123032962 0  0.707106781185206 -0.7071067811878892 0  0.8314696123017388 -0.5555702330208091 0  0.9238795325109728 -0.3826834323658478 0  0.9807852804031804 -0.1950903220163801 0  0.9807852804032812 0.1950903220158731 0  0.9238795325115864 0.3826834323643665 0  0.8314696123032962 0.5555702330184784 0  0.7071067811878892 0.707106781185206 0  0.5555702330208091 0.8314696123017388 0  0.3826834323658478 0.9238795325109728 0  0.1950903220163801 0.9807852804031804 0  -0.4010312951537912 0.7360573599078917 0  0.3909121634881583 -0.746873434131112 0  -0.7181207012378417 -0.3781273857720758 0  0.7462846701903609 0.4007814815769525 0  -0.769635519671895 0.2389164192906686 0  -0.2383991850297741 -0.8137803238786306 0  0.7488518860266158 -0.2260212837023837 0  0.2396050538951479 0.7898720073196266 0  -0.8240407777320297 -0.08340750634864269 0  0.08082775329150399 -0.8212832082680014 0  0.8145828363991171 0.1012084731730623 0  -0.5165804177754029 -0.6207066818573904 0  0.6533816409974786 -0.526153391217012 0  0.5434492986952936 0.6350889227807393 0  -0.07827168554848997 0.8096489508055043 0  -0.6380536964293071 0.5236371360711489 0  -0.4004641810622154 -0.7582235920186366 0  -0.2840102762536819 -0.6221941674229802 0  -0.4198348340909724 -0.4460056233843191 0  -0.2299021587828225 -0.416572109880544 0  -0.361435255595819 -0.2669191357342956 0  -0.1703764807698526 -0.2292809900053229 0  -0.3003185117035445 -0.08237775196257707 0  -0.1084992857163717 -0.04409917347385126 0  0.02097880267068894 -0.1906786372405807 0  0.08360742290735296 -0.005460928952668401 0  -0.04592816329235094 0.1415949775510071 0  0.1462499913006186 0.180190094582773 0  0.2131202119345417 -0.1526351695620617 0  0.01671539767533495 0.3273169665755903 0  -0.1754789470136603 0.288710141812566 0  0.1508477996529647 -0.3373866686482164 0  0.2089072884507346 0.3659180125960204 0  0.338435712813618 0.2187683771759701 0  0.3415774523922881 -0.2992904817926842 0  0.4051282717991008 -0.1140088595625922 0  -0.1122008873217656 0.4713689721356764 0  -0.3031430438003562 0.4294936873734545 0  -0.3676814008096559 0.250095155821255 0  -0.09319051674462636 -0.558214919684234 0  -0.4889115776292665 -0.121699478698023 0  0.2769024510860371 -0.4736492464173981 0  0.3962597186461526 0.4002565011626351 0  0.5288603588444407 -0.2568125024652139 0  0.5870411704207006 -0.07215542064743193 0  0.5187151233518137 0.2496232087112158 0  0.2657391740333004 0.5783791994094651 0  0.07493737782363795 0.5103737411409786 0  0.2757512863452592 0.03308008572014936 0  0.4614561325255778 0.07185054047776779 0  -0.2380296436208013 0.1030533670775971 0  -0.4295032112963036 0.06440626579128814 0  -0.6558877563895248 0.03249123079345563 0  -0.562764779504529 0.2224758864871421 0  -0.547555464219492 -0.3045445743405544 0  -0.03848213609742517 -0.3756250741678644 0  -0.4935454977778098 0.3894725418606931 0  0.09599278535801378 -0.5125987420975444 0  0.479666570445245 -0.4541640778050161 0  -0.2314217899569818 0.6385076896719932 0  0.2170807509860275 -0.6606207709458539 0  -0.04594464167456228 0.6211643677356511 0  0.6306194359493728 0.09717618479903847 0  -0.6729272946424609 -0.1789977029496627 0  -0.09280418329797865 -0.7276934160942915 0  -0.429354197764334 0.5582085809727982 0  -0.6529589324073616 0.3572233657648931 0  0.7570429469573966 -0.4046478855427866 0  0.4001990080982048 0.7175461274422605 0  0.8542685256649261 -0.08413810593692042 0  -0.8220931648042954 -0.2477441227945648 0  -0.6635536927171928 -0.5445644421872344 0  -0.8460698668393261 0.07661809315037232 0  0.53071471142136 -0.6406889282234147 0  0.8279357008777251 0.2671613492946088 0  0.6783059791598082 0.5430388451053303 0  0.09473149339876522 0.8512457446904828 0  -0.2576997050079006 0.8177757626600514 0  0.09179946198796653 0.6934473351836179 0  0.2533188844291859 -0.8266884452519669 0  -0.5488610608003938 0.6687891376454518 0  0.5673296902152197 0.4330599267158119 0  0.04817739042770783 -0.6601159811135504 0  0.3843683437448593 -0.5903898575593031 0  -0.0873380906134016 -0.8774212947857044 0  0.6215917100664415 -0.3784938286184548 0  0.6767748789908119 0.2565962964107974 0  -0.7744460732371771 0.4158212277346107 0  0.4245797756394445 0.5497908807244707 0  0.727775168114748 -0.02351273026317269 0  -0.5689992204060029 -0.4475621611577191 0  </DataArray>
</Points>
<Cells>
<DataArray  type="UInt32"  Name="connectivity"  format="ascii">36 84 85  38 75 76  36 84 104  46 91 109  46 91 93  39 78 100  38 75 117  38 76 121  43 49 50  49 71 96  37 49 96  40 84 104  46 108 110  46 93 110  78 100 120  39 78 110  43 48 49  34 86 95  44 90 105  40 84 95  36 85 98  90 105 115  49 50 51  34 95 102  42 106 118  42 94 118  49 51 71  50 51 52  45 113 120  51 52 53  52 53 54  52 54 72  53 54 55  53 55 56  55 56 57  56 57 60  55 57 58  56 60 63  57 58 59  60 63 66  58 59 61  63 66 73  60 66 67  59 61 64  58 61 62  59 64 65  61 62 68  66 67 75  64 65 74  67 75 76  62 68 69  65 74 77  62 69 70  64 74 78  14 15 43  21 22 44  28 29 45  7 8 47  16 17 37  23 24 38  9 10 36  30 31 39  1 18 41  2 25 42  3 11 40  12 13 34  19 20 33  26 27 35  0 4 46  5 6 32  61 64 79  61 68 79  64 78 79  54 55 82  57 60 80  57 59 80  59 65 80  60 67 80  65 80 81  67 80 81  65 77 81  67 76 81  62 70 82  55 58 82  58 62 82  54 72 83  72 83 84  54 82 83  70 82 83  63 87 89  83 84 85  70 83 85  45 107 113  51 71 87  38 99 117  56 63 87  51 53 87  38 101 121  50 52 86  71 87 89  70 85 88  47 88 97  52 72 86  53 56 87  66 75 90  69 70 88  63 73 89  66 73 90  76 81 94  72 84 95  68 69 91  32 91 109  68 91 93  73 89 92  78 79 110  43 50 122  32 91 97  69 91 97  47 97 112  68 79 93  77 81 94  41 92 111  72 86 95  45 100 120  71 89 114  37 48 49  33 92 115  73 92 115  85 88 98  41 92 114  69 88 97  47 88 98  14 43 103  21 44 105  2 24 101  28 45 107  10 36 104  16 37 48  15 16 48  22 23 99  23 38 99  24 38 101  29 30 100  31 39 108  3 10 104  30 39 100  2 42 101  15 43 48  22 44 99  0 31 108  29 45 100  11 40 102  25 42 106  11 12 102  25 26 106  12 34 102  13 14 103  20 21 105  13 34 103  27 28 107  26 35 106  3 40 104  20 33 105  27 35 107  4 5 109  4 46 109  0 46 108  5 32 109  18 41 111  19 33 111  7 47 112  6 32 112  18 19 111  71 96 114  17 37 116  1 41 116  9 36 119  8 47 119  6 7 112  74 77 113  43 103 122  33 92 111  40 95 102  74 113 120  35 113 118  75 90 117  76 94 121  39 108 110  79 93 110  77 113 118  34 86 122  1 17 116  8 9 119  74 78 120  32 97 112  44 90 117  37 96 116  41 96 116  50 86 122  73 90 115  36 98 119  47 98 119  89 92 114  35 107 113  42 94 121  33 105 115  41 96 114  34 103 122  77 94 118  35 106 118  44 99 117  42 101 121  </DataArray>
<DataArray  type="UInt32"  Name="offsets"  format="ascii">3 6 9 12 15 18 21 24 27 30 33 36 39 42 45 48 51 54 57 60 63 66 69 72 75 78 81 84 87 90 93 96 99 102 105 108 111 114 117 120 123 126 129 132 135 138 141 144 147 150 153 156 159 162 165 168 171 174 177 180 183 186 189 192 195 198 201 204 207 210 213 216 219 222 225 228 231 234 237 240 243 246 249 252 255 258 261 264 267 270 273 276 279 282 285 288 291 294 297 300 303 306 309 312 315 318 321 324 327 330 333 336 339 342 345 348 351 354 357 360 363 366 369 372 375 378 381 384 387 390 393 396 399 402 405 408 411 414 417 420 423 426 429 432 435 438 441 444 447 450 453 456 459 462 465 468 471 474 477 480 483 486 489 492 495 498 501 504 507 510 513 516 519 522 525 528 531 534 537 540 543 546 549 552 555 558 561 564 567 570 573 576 579 582 585 588 591 594 597 600 603 606 609 612 615 618 621 624 627 630 633 636 </DataArray>
<DataArray  type="UInt8"  Name="types"  format="ascii">5 5 5 5 5 5 5 5 5 5 5 5 5 5 5 5 5 5 5 5 5 5 5 5 5 5 5 5 5 5 5 5 5 5 5 5 5 5 5 5 5 5 5 5 5 5 5 5 5 5 5 5 5 5 5 5 5 5 5 5 5 5 5 5 5 5 5 5 5 5 5 5 5 5 5 5 5 5 5 5 5 5 5 5 5 5 5 5 5 5 5 5 5 5 5 5 5 5 5 5 5 5 5 5 5 5 5 5 5 5 5 5 5 5 5 5 5 5 5 5 5 5 5 5 5 5 5 5 5 5 5 5 5 5 5 5 5 5 5 5 5 5 5 5 5 5 5 5 5 5 5 5 5 5 5 5 5 5 5 5 5 5 5 5 5 5 5 5 5 5 5 5 5 5 5 5 5 5 5 5 5 5 5 5 5 5 5 5 5 5 5 5 5 5 5 5 5 5 5 5 5 5 5 5 5 5 5 5 5 5 5 5 </DataArray>
</Cells>
<PointData  Scalars="f_10"> 
<DataArray  type="Float64"  Name="f_10"  format="ascii">0.0000000000000000e+00  0.0000000000000000e+00  0.0000000000000000e+00  0.0000000000000000e+00  0.0000000000000000e+00  0.0000000000000000e+00  0.0000000000000000e+00  0.0000000000000000e+00  0.0000000000000000e+00  0.0000000000000000e+00  0.0000000000000000e+00  0.0000000000000000e+00  0.0000000000000000e+00  0.0000000000000000e+00  0.0000000000000000e+00  0.0000000000000000e+00  0.0000000000000000e+00  0.0000000000000000e+00  0.0000000000000000e+00  0.0000000000000000e+00  0.0000000000000000e+00  0.0000000000000000e+00  0.0000000000000000e+00  0.0000000000000000e+00  0.0000000000000000e+00  0.0000000000000000e+00  0.0000000000000000e+00  0.0000000000000000e+00  0.0000000000000000e+00  0.0000000000000000e+00  0.0000000000000000e+00  0.0000000000000000e+00  1.7926501240520751e+00  1.6674087087441818e+00  2.1313269261108925e+00  1.4867393255366776e+00  2.1572433055536582e+00  1.6681458064609507e+00  2.1113607497129019e+00  2.0158716083950705e+00  1.9482654060230458e+00  1.9240614886831431e+00  1.6968837511704118e+00  2.1431675691808070e+00  1.6178866466872230e+00  1.7472543385450121e+00  2.1876273638754271e+00  1.8889923737454135e+00  1.5598349097384969e+00  3.4426268353131260e+00  4.0892253294933596e+00  4.9946971619447664e+00  5.1797231864513877e+00  5.5939769596004654e+00  5.6338992580591061e+00  5.6973074704244491e+00  5.5529747895204116e+00  5.5527534711366435e+00  5.7299933845873383e+00  5.5563755351431086e+00  5.3280369951090645e+00  5.6282699381005541e+00  5.6210079763479799e+00  5.2175181530772274e+00  5.2305547522950491e+00  5.0295897174457940e+00  4.7607737144957616e+00  4.7882013899734659e+00  5.1091690155777751e+00  4.7797530391688889e+00  5.2105376861605031e+00  4.3937613260550048e+00  4.9410246374292619e+00  4.3506371311733663e+00  4.2732160181705190e+00  3.8415636085757652e+00  3.7405466569353134e+00  3.9699123562944463e+00  3.9529371135376392e+00  4.9222749336660625e+00  5.2736768609967495e+00  4.5654977678672441e+00  5.7216066988485563e+00  5.2875071204477919e+00  3.7818263169341946e+00  4.1456960415921751e+00  4.0127890773529415e+00  5.3189841220684748e+00  3.9108426773116918e+00  4.6252383872655098e+00  3.3907145631735887e+00  3.5924025768722987e+00  3.2471540082547685e+00  4.1287121825610820e+00  3.3729415771094198e+00  3.3869003865166079e+00  2.9102520081388281e+00  3.2174498550983839e+00  2.7648271297168447e+00  1.3788180836364223e+00  1.9872011726586674e+00  1.3332414689278933e+00  1.5930627538166244e+00  1.5704737745915034e+00  1.6815691710261569e+00  1.7421276451657823e+00  1.2255203828329595e+00  1.3167151946069795e+00  1.6667553317732025e+00  1.6133886099868933e+00  3.4319557388335733e+00  1.4537344088932742e+00  1.4505270578790757e+00  2.9079630271356542e+00  3.5650798718406951e+00  3.0482746147048836e+00  1.2871972873906055e+00  2.6698209637749604e+00  2.6671647396110800e+00  1.3029532715740375e+00  3.2252361896966275e+00  2.5615478445813098e+00  3.0381603800535015e+00  </DataArray> 
</PointData> 
</Piece>
</UnstructuredGrid>
</VTKFile>