<?xml version="1.0"?>
<VTKFile type="UnstructuredGrid"  version="0.1"  >
<UnstructuredGrid>
<Piece  NumberOfPoints="3567" NumberOfCells="16129">
<Points>
<DataArray  type="Float64"  NumberOfComponents="3"  format="ascii">1 0 0  0 1 0  -1 0 0  0 -1 0  0 0 -1  0 0 1  0.9951847266722343 0.09801714032917982 0  0.9807852804033356 0.1950903220155996 0  0.9569403357324345 0.2902846772537184 0  0.9238795325116899 0.3826834323641164 0  0.8819212643489727 0.4713967368248421 0  0.8314696123033888 0.5555702330183399 0  0.7730104533638363 0.6343932841623059 0  0.7071067811878894 0.7071067811852056 0  0.6343932841648996 0.7730104533617078 0  0.5555702330207417 0.8314696123017838 0  0.4713967368269896 0.8819212643478248 0  0.382683432365871 0.9238795325109631 0  0.290284677254992 0.9569403357320482 0  0.1950903220164424 0.9807852804031679 0  0.09801714032963502 0.9951847266721896 0  -0.09801714032917982 0.9951847266722343 0  -0.1950903220155996 0.9807852804033356 0  -0.2902846772537184 0.9569403357324345 0  -0.3826834323641164 0.9238795325116899 0  -0.4713967368248421 0.8819212643489727 0  -0.5555702330183399 0.8314696123033888 0  -0.6343932841623059 0.7730104533638363 0  -0.7071067811852056 0.7071067811878894 0  -0.7730104533617078 0.6343932841648996 0  -0.8314696123017838 0.5555702330207417 0  -0.8819212643478248 0.4713967368269896 0  -0.9238795325109631 0.382683432365871 0  -0.9569403357320482 0.290284677254992 0  -0.9807852804031679 0.1950903220164424 0  -0.9951847266721896 0.09801714032963502 0  -0.9951847266722343 -0.09801714032917982 0  -0.9807852804033356 -0.1950903220155996 0  -0.9569403357324345 -0.2902846772537184 0  -0.9238795325116899 -0.3826834323641164 0  -0.8819212643489727 -0.4713967368248421 0  -0.8314696123033888 -0.5555702330183399 0  -0.7730104533638363 -0.6343932841623059 0  -0.7071067811878894 -0.7071067811852056 0  -0.6343932841648996 -0.7730104533617078 0  -0.5555702330207417 -0.8314696123017838 0  -0.4713967368269896 -0.8819212643478248 0  -0.382683432365871 -0.9238795325109631 0  -0.290284677254992 -0.9569403357320482 0  -0.1950903220164424 -0.9807852804031679 0  -0.09801714032963502 -0.9951847266721896 0  0.09801714032917982 -0.9951847266722343 0  0.1950903220155996 -0.9807852804033356 0  0.2902846772537184 -0.9569403357324345 0  0.3826834323641164 -0.9238795325116899 0  0.4713967368248421 -0.8819212643489727 0  0.5555702330183399 -0.8314696123033888 0  0.6343932841623059 -0.7730104533638363 0  0.7071067811852056 -0.7071067811878894 0  0.7730104533617078 -0.6343932841648996 0  0.8314696123017838 -0.5555702330207417 0  0.8819212643478248 -0.4713967368269896 0  0.9238795325109631 -0.382683432365871 0  0.9569403357320482 -0.290284677254992 0  0.9807852804031679 -0.1950903220164424 0  0.9951847266721896 -0.09801714032963502 0  0 0.9951847266722343 -0.09801714032917982  0 0.9807852804033356 -0.1950903220155996  0 0.9569403357324345 -0.2902846772537184  0 0.9238795325116899 -0.3826834323641164  0 0.8819212643489727 -0.4713967368248421  0 0.8314696123033888 -0.5555702330183399  0 0.7730104533638363 -0.6343932841623059  0 0.7071067811878894 -0.7071067811852056  0 0.6343932841648996 -0.7730104533617078  0 0.5555702330207417 -0.8314696123017838  0 0.4713967368269896 -0.8819212643478248  0 0.382683432365871 -0.9238795325109631  0 0.290284677254992 -0.9569403357320482  0 0.1950903220164424 -0.9807852804031679  0 0.09801714032963502 -0.9951847266721896  0 -0.09801714032917982 -0.9951847266722343  0 -0.1950903220155996 -0.9807852804033356  0 -0.2902846772537184 -0.9569403357324345  0 -0.3826834323641164 -0.9238795325116899  0 -0.4713967368248421 -0.8819212643489727  0 -0.5555702330183399 -0.8314696123033888  0 -0.6343932841623059 -0.7730104533638363  0 -0.7071067811852056 -0.7071067811878894  0 -0.7730104533617078 -0.6343932841648996  0 -0.8314696123017838 -0.5555702330207417  0 -0.8819212643478248 -0.4713967368269896  0 -0.9238795325109631 -0.382683432365871  0 -0.9569403357320482 -0.290284677254992  0 -0.9807852804031679 -0.1950903220164424  0 -0.9951847266721896 -0.09801714032963502  0 -0.9951847266722343 0.09801714032917982  0 -0.9807852804033356 0.1950903220155996  0 -0.9569403357324345 0.2902846772537184  0 -0.9238795325116899 0.3826834323641164  0 -0.8819212643489727 0.4713967368248421  0 -0.8314696123033888 0.5555702330183399  0 -0.7730104533638363 0.6343932841623059  0 -0.7071067811878894 0.7071067811852056  0 -0.6343932841648996 0.7730104533617078  0 -0.5555702330207417 0.8314696123017838  0 -0.4713967368269896 0.8819212643478248  0 -0.382683432365871 0.9238795325109631  0 -0.290284677254992 0.9569403357320482  0 -0.1950903220164424 0.9807852804031679  0 -0.09801714032963502 0.9951847266721896  0 0.09801714032917982 0.9951847266722343  0 0.1950903220155996 0.9807852804033356  0 0.2902846772537184 0.9569403357324345  0 0.3826834323641164 0.9238795325116899  0 0.4713967368248421 0.8819212643489727  0 0.5555702330183399 0.8314696123033888  0 0.6343932841623059 0.7730104533638363  0 0.7071067811852056 0.7071067811878894  0 0.7730104533617078 0.6343932841648996  0 0.8314696123017838 0.5555702330207417  0 0.8819212643478248 0.4713967368269896  0 0.9238795325109631 0.382683432365871  0 0.9569403357320482 0.290284677254992  0 0.9807852804031679 0.1950903220164424  0 0.9951847266721896 0.09801714032963502  0.9951847266722343 0 0.09801714032917982  0.9807852804033356 0 0.1950903220155996  0.9569403357324345 0 0.2902846772537184  0.9238795325116899 0 0.3826834323641164  0.8819212643489727 0 0.4713967368248421  0.8314696123033888 0 0.5555702330183399  0.7730104533638363 0 0.6343932841623059  0.7071067811878894 0 0.7071067811852056  0.6343932841648996 0 0.7730104533617078  0.5555702330207417 0 0.8314696123017838  0.4713967368269896 0 0.8819212643478248  0.382683432365871 0 0.9238795325109631  0.290284677254992 0 0.9569403357320482  0.1950903220164424 0 0.9807852804031679  0.09801714032963502 0 0.9951847266721896  -0.09801714032917982 0 0.9951847266722343  -0.1950903220155996 0 0.9807852804033356  -0.2902846772537184 0 0.9569403357324345  -0.3826834323641164 0 0.9238795325116899  -0.4713967368248421 0 0.8819212643489727  -0.5555702330183399 0 0.8314696123033888  -0.6343932841623059 0 0.7730104533638363  -0.7071067811852056 0 0.7071067811878894  -0.7730104533617078 0 0.6343932841648996  -0.8314696123017838 0 0.5555702330207417  -0.8819212643478248 0 0.4713967368269896  -0.9238795325109631 0 0.382683432365871  -0.9569403357320482 0 0.290284677254992  -0.9807852804031679 0 0.1950903220164424  -0.9951847266721896 0 0.09801714032963502  -0.9951847266722343 0 -0.09801714032917982  -0.9807852804033356 0 -0.1950903220155996  -0.9569403357324345 0 -0.2902846772537184  -0.9238795325116899 0 -0.3826834323641164  -0.8819212643489727 0 -0.4713967368248421  -0.8314696123033888 0 -0.5555702330183399  -0.7730104533638363 0 -0.6343932841623059  -0.7071067811878894 0 -0.7071067811852056  -0.6343932841648996 0 -0.7730104533617078  -0.5555702330207417 0 -0.8314696123017838  -0.4713967368269896 0 -0.8819212643478248  -0.382683432365871 0 -0.9238795325109631  -0.290284677254992 0 -0.9569403357320482  -0.1950903220164424 0 -0.9807852804031679  -0.09801714032963502 0 -0.9951847266721896  0.09801714032917982 0 -0.9951847266722343  0.1950903220155996 0 -0.9807852804033356  0.2902846772537184 0 -0.9569403357324345  0.3826834323641164 0 -0.9238795325116899  0.4713967368248421 0 -0.8819212643489727  0.5555702330183399 0 -0.8314696123033888  0.6343932841623059 0 -0.7730104533638363  0.7071067811852056 0 -0.7071067811878894  0.7730104533617078 0 -0.6343932841648996  0.8314696123017838 0 -0.5555702330207417  0.8819212643478248 0 -0.4713967368269896  0.9238795325109631 0 -0.382683432365871  0.9569403357320482 0 -0.290284677254992  0.9807852804031679 0 -0.1950903220164424  0.9951847266721896 0 -0.09801714032963502  -0.0849535125072714 0.7382725247506051 0.6691312127759728  -0.7396080272348013 0.6676879737857622 0.08469200500465637  -0.6704764291167224 0.08380798144189026 0.7371821893165381  -0.5122442195562509 0.854627848975161 0.08495351250711686  -0.8560939204503846 0.08354702543799218 0.5100226405840765  -0.08495351250709936 0.5122442195561505 0.8546278489752229  -0.4300963549195869 0.07679764258227882 0.8995105600151058  -0.0835561727372332 0.9007164275551678 0.42629600412127  -0.9012419911729929 0.4254158352274269 0.08236650098365102  -0.08495351250709916 0.3356719682523759 0.9381403042414723  -0.3388436540241894 0.9371781744812865 0.08295810631553052  -0.9401061014805988 0.0837169726760672 0.3304421075542653  -0.237333667684701 0.08805134017880341 0.9674294246486638  -0.9665245086732498 0.242101786128406 0.08495351250753928  -0.07955697762322704 0.9656924209030903 0.2472020135876447  -0.147538137942468 0.9857598784141811 0.08068432289688082  -0.08323120424048432 0.1466613675879779 0.9856789588389836  -0.9860542931139568 0.07636207615457266 0.1478707691090376  -0.08563907213194637 0.7999253878830488 0.5939573411824568  -0.169553455805077 0.7620059826907851 0.6249788060150572  -0.1688532788253262 0.6962554648738555 0.6976509857107838  -0.2526972719392072 0.7165907392038463 0.6501090687275232  -0.2513514846010997 0.7790415163470658 0.5743837976444737  -0.3333969078133108 0.7300018866842294 0.5966102138733363  -0.3334156158194312 0.6640571607876696 0.6692250102427197  -0.4124203393421959 0.6741042984615695 0.6127747208334422  -0.410101400191517 0.6050396594918273 0.6824542856506735  -0.4878886271593281 0.6117949669666467 0.6226328018044552  -0.4878065257292319 0.6778505795502453 0.5500576199448316  -0.5610216929294658 0.6123306706061179 0.5570509939831524  -0.4831742433731085 0.5398879648641169 0.6892486024183917  -0.5583079816809434 0.6753698894338427 0.4818378462070725  -0.6286739287850789 0.6067848805522585 0.4863961348521542  -0.3310899175395018 0.7887037033040801 0.5180018676589067  -0.6280064704802044 0.5411443924058367 0.5592589915260316  -0.6930066194712364 0.5325477100408557 0.4859369937546324  -0.6892383691313519 0.4649688613236849 0.5
[...]
<PointData  Scalars="f_10"> 
<DataArray  type="Float64"  Name="f_10"  format="ascii">0.0000000000000000e+00  0.0000000000000000e+00  0.0000000000000000e+00  0.0000000000000000e+00  0.0000000000000000e+00  0.0000000000000000e+00  0.0000000000000000e+00  0.0000000000000000e+00  0.0000000000000000e+00  0.0000000000000000e+00  0.0000000000000000e+00  0.0000000000000000e+00  0.0000000000000000e+00  0.0000000000000000e+00  0.0000000000000000e+00  0.0000000000000000e+00  0.0000000000000000e+00  0.0000000000000000e+00  0.0000000000000000e+00  0.0000000000000000e+00  0.0000000000000000e+00  0.0000000000000000e+00  0.0000000000000000e+00  0.0000000000000000e+00  0.0000000000000000e+00  0.0000000000000000e+00  0.0000000000000000e+00  0.0000000000000000e+00  0.0000000000000000e+00  0.0000000000000000e+00  0.0000000000000000e+00  0.0000000000000000e+00  0.0000000000000000e+00  0.0000000000000000e+00  0.0000000000000000e+00  0.0000000000000000e+00  0.0000000000000000e+00  0.0000000000000000e+00  0.0000000000000000e+00  0.0000000000000000e+00  0.0000000000000000e+00  0.0000000000000000e+00  0.0000000000000000e+00  0.0000000000000000e+00  0.0000000000000000e+00  0.0000000000000000e+00  0.0000000000000000e+00  0.0000000000000000e+00  0.0000000000000000e+00  0.0000000000000000e+00  0.0000000000000000e+00  0.0000000000000000e+00  0.0000000000000000e+00  0.0000000000000000e+00  0.0000000000000000e+00  0.0000000000000000e+00  0.0000000000000000e+00  0.0000000000000000e+00  0.0000000000000000e+00  0.0000000000000000e+00  0.0000000000000000e+00  0.0000000000000000e+00  0.0000000000000000e+00  0.0000000000000000e+00  0.0000000000000000e+00  0.0000000000000000e+00  0.0000000000000000e+00  0.0000000000000000e+00  0.0000000000000000e+00  0.0000000000000000e+00  0.0000000000000000e+00  0.0000000000000000e+00  0.0000000000000000e+00  0.0000000000000000e+00  0.0000000000000000e+00  0.0000000000000000e+00  0.0000000000000000e+00  0.0000000000000000e+00  0.0000000000000000e+00  0.0000000000000000e+00  0.0000000000000000e+00  0.0000000000000000e+00  0.0000000000000000e+00  0.0000000000000000e+00  0.0000000000000000e+00  0.0000000000000000e+00  0.0000000000000000e+00  0.0000000000000000e+00  0.0000000000000000e+00  0.0000000000000000e+00  0.0000000000000000e+00  0.0000000000000000e+00  0.0000000000000000e+00  0.0000000000000000e+00  0.0000000000000000e+00  0.0000000000000000e+00  0.0000000000000000e+00  0.0000000000000000e+00  0.0000000000000000e+00  0.0000000000000000e+00  0.0000000000000000e+00  0.0000000000000000e+00  0.0000000000000000e+00  0.0000000000000000e+00  0.0000000000000000e+00  0.0000000000000000e+00  0.0000000000000000e+00  0.0000000000000000e+00  0.0000000000000000e+00  0.0000000000000000e+00  0.0000000000000000e+00  0.0000000000000000e+00  0.0000000000000000e+00  0.0000000000000000e+00  0.0000000000000000e+00  0.0000000000000000e+00  0.0000000000000000e+00  0.0000000000000000e+00  0.0000000000000000e+00  0.0000000000000000e+00  0.0000000000000000e+00  0.0000000000000000e+00  0.0000000000000000e+00  0.0000000000000000e+00  0.0000000000000000e+00  0.0000000000000000e+00  0.0000000000000000e+00  0.0000000000000000e+00  0.0000000000000000e+00  0.0000000000000000e+00  0.0000000000000000e+00  0.0000000000000000e+00  0.0000000000000000e+00  0.0000000000000000e+00  0.0000000000000000e+00  0.0000000000000000e+00  0.0000000000000000e+00  0.0000000000000000e+00  0.0000000000000000e+00  0.0000000000000000e+00  0.0000000000000000e+00  0.0000000000000000e+00  0.0000000000000000e+00  0.0000000000000000e+00  0.0000000000000000e+00  0.0000000000000000e+00  0.0000000000000000e+00  0.0000000000000000e+00  0.0000000000000000e+00  0.0000000000000000e+00  0.0000000000000000e+00  0.0000000000000000e+00  0.0000000000000000e+00  0.0000000000000000e+00  0.0000000000000000e+00  0.0000000000000000e+00  0.0000000000000000e+00  0.0000000000000000e+00  0.0000000000000000e+00  0.0000000000000000e+00  0.0000000000000000e+00  0.0000000000000000e+00  0.0000000000000000e+00  0.0000000000000000e+00  0.0000000000000000e+00  0.0000000000000000e+00  0.0000000000000000e+00  0.0000000000000000e+00  0.0000000000000000e+00  0.0000000000000000e+00  0.0000000000000000e+00  0.0000000000000000e+00  0.0000000000000000e+00  0.0000000000000000e+00  0.0000000000000000e+00  0.0000000000000000e+00  0.0000000000000000e+00  0.0000000000000000e+00  0.0000000000000000e+00  0.0000000000000000e+00  0.0000000000000000e+00  0.0000000000000000e+00  0.0000000000000000e+00  0.0000000000000000e+00  0.0000000000000000e+00  0.0000000000000000e+00  0.0000000000000000e+00  0.0000000000000000e+00  0.0000000000000000e+00  0.0000000000000000e+00  0.0000000000000000e+00  0.0000000000000000e+00  0.0000000000000000e+00  0.0000000000000000e+00  0.0000000000000000e+00  0.0000000000000000e+00  0.0000000000000000e+00  0.0000000000000000e+00  0.0000000000000000e+00  0.0000000000000000e+00  0.0000000000000000e+00  0.0000000000000000e+00  0.0000000000000000e+00  0.0000000000000000e+00  0.0000000000000000e+00  0.0000000000000000e+00  0.0000000000000000e+00  0.0000000000000000e+00  0.0000000000000000e+00  0.0000000000000000e+00  0.0000000000000000e+00  0.0000000000000000e+00  0.0000000000000000e+00  0.0000000000000000e+00  0.0000000000000000e+00  0.0000000000000000e+00  0.0000000000000000e+00  0.0000000000000000e+00  0.0000000000000000e+00  0.0000000000000000e+00  0.0000000000000000e+00  0.0000000000000000e+00  0.0000000000000000e+00  0.0000000000000000e+00  0.0000000000000000e+00  0.0000000000000000e+00  0.0000000000000000e+00  0.0000000000000000e+00  0.0000000000000000e+00  0.0000000000000000e+00  0.0000000000000000e+00  0.0000000000000000e+00  0.0000000000000000e+00  0.0000000000000000e+00  0.0000000000000000e+00  0.0000000000000000e+00  0.0000000000000000e+00  0.0000000000000000e+00  0.0000000000000000e+00  0.0000000000000000e+00  0.0000000000000000e+00  0.0000000000000000e+00  0.0000000000000000e+00  0.0000000000000000e+00  0.0000000000000000e+00  0.0000000000000000e+00  0.0000000000000000e+00  0.0000000000000000e+00  0.0000000000000000e+00  0.0000000000000000e+00  0.0000000000000000e+00  0.0000000000000000e+00  0.0000000000000000e+00  0.0000000000000000e+00  0.0000000000000000e+00  0.0000000000000000e+00  0.0000000000000000e+00  0.0000000000000000e+00  0.0000000000000000e+00  0.0000000000000000e+00  0.0000000000000000e+00  0.0000000000000000e+00  0.0000000000000000e+00  0.0000000000000000e+00  0.0000000000000000e+00  0.0000000000000000e+00  0.0000000000000000e+00  0.0000000000000000e+00  0.0000000000000000e+00  0.0000000000000000e+00  0.0000000000000000e+00  0.0000000000000000e+00  0.0000000000000000e+00  0.0000000000000000e+00  0.0000000000000000e+00  0.0000000000000000e+00  0.0000000000000000e+00  0.0000000000000000e+00  0.0000000000000000e+00  0.0000000000000000e+00  0.0000000000000000e+00  0.0000000000000000e+00  0.0000000000000000e+00  0.0000000000000000e+00  0.0000000000000000e+00  0.0000000000000000e+00  0.0000000000000000e+00  0.0000000000000000e+00  0.0000000000000000e+00  0.0000000000000000e+00  0.0000000000000000e+00  0.0000000000000000e+00  0.0000000000000000e+00  0.0000000000000000e+00  0.0000000000000000e+00  0.0000000000000000e+00  0.0000000000000000e+00  0.0000000000000000e+00  0.0000000000000000e+00  0.0000000000000000e+00  0.0000000000000000e+00  0.0000000000000000e+00  0.0000000000000000e+00  0.0000000000000000e+00  0.0000000000000000e+00  0.0000000000000000e+00  0.0000000000000000e+00  0.0000000000000000e+00  0.0000000000000000e+00  0.0000000000000000e+00  0.0000000000000000e+00  0.0000000000000000e+00  0.0000000000000000e+00  0.0000000000000000e+00  0.0000000000000000e+00  0.0000000000000000e+00  0.0000000000000000e+00  0.0000000000000000e+00  0.0000000000000000e+00  0.0000000000000000e+00  0.0000000000000000e+00  0.0000000000000000e+00  0.0000000000000000e+00  0.0000000000000000e+00  0.0000000000000000e+00  0.0000000000000000e+00  0.0000000000000000e+00  0.0000000000000000e+00  0.0000000000000000e+00  0.0000000000000000e+00  0.0000000000000000e+00  0.0000000000000000e+00  0.0000000000000000e+00  0.0000000000000000e+00  0.0000000000000000e+00  0.0000000000000000e+00  0.0000000000000000e+00  0.0000000000000000e+00  0.0000000000000000e+00  0.0000000000000000e+00  0.0000000000000000e+00  0.0000000000000000e+00  0.0000000000000000e+00  0.0000000000000000e+00  0.0000000000000000e+00  0.0000000000000000e+00  0.0000000000000000e+00  0.0000000000000000e+00  0.0000000000000000e+00  0.0000000000000000e+00  0.0000000000000000e+00  0.0000000000000000e+00  0.0000000000000000e+00  0.0000000000000000e+00  0.0000000000000000e+00  0.0000000000000000e+00  0.0000000000000000e+00  0.0000000000000000e+00  0.0000000000000000e+00  0.0000000000000000e+00  0.0000000000000000e+00  0.0000000000000000e+00  0.0000000000000000e+00  0.0000000000000000e+00  0.0000000000000000e+00  0.0000000000000000e+00  0.0000000000000000e+00  0.0000000000000000e+00  0.0000000000000000e+00  0.0000000000000000e+00  0.0000000000000000e+00  0.0000000000000000e+00  0.0000000000000000e+00  0.0000000000000000e+00  0.0000000000000000e+00  0.0000000000000000e+00  0.0000000000000000e+00  0.0000000000000000e+00  0.0000000000000000e+00  0.0000000000000000e+00  0.0000000000000000e+00  0.0000000000000000e+00  0.0000000000000000e+00  0.0000000000000000e+00  0.0000000000000000e+00  0.0000000000000000e+00  0.0000000000000000e+00  0.0000000000000000e+00  0.0000000000000000e+00  0.0000000000000000e+00  0.0000000000000000e+00  0.0000000000000000e+00  0.0000000000000000e+00  0.0000000000000000e+00  0.0000000000000000e+00  0.0000000000000000e+00  0.0000000000000000e+00  0.0000000000000000e+00  0.0000000000000000e+00  0.0000000000000000e+00  0.0000000000000000e+00  0.0000000000000000e+00  0.0000000000000000e+00  0.0000000000000000e+00  0.0000000000000000e+00  0.0000000000000000e+00  0.0000000000000000e+00  0.0000000000000000e+00  0.0000000000000000e+00  0.0000000000000000e+00  0.0000000000000000e+00  0.0000000000000000e+00  0.0000000000000000e+00  0.0000000000000000e+00  0.0000000000000000e+00  0.0000000000000000e+00  0.0000000000000000e+00  0.0000000000000000e+00  0.0000000000000000e+00  0.0000000000000000e+00  0.0000000000000000e+00  0.0000000000000000e+00  0.0000000000000000e+00  0.0000000000000000e+00  0.0000000000000000e+00  0.0000000000000000e+00  0.0000000000000000e+00  0.0000000000000000e+00  0.0000000000000000e+00  0.0000000000000000e+00  0.0000000000000000e+00  0.0000000000000000e+00  0.0000000000000000e+00  0.0000000000000000e+00  0.0000000000000000e+00  0.0000000000000000e+00  0.0000000000000000e+00  0.0000000000000000e+00  0.0000000000000000e+00  0.0000000000000000e+00  0.0000000000000000e+00  0.0000000000000000e+00  0.0000000000000000e+00  0.0000000000000000e+00  0.0000000000000000e+00  0.0000000000000000e+00  0.0000000000000000e+00  0.0000000000000000e+00  0.0000000000000000e+00  0.0000000000000000e+00  0.0000000000000000e+00  0.0000000000000000e+00  0.0000000000000000e+00  0.0000000000000000e+00  0.0000000000000000e+00  0.0000000000000000e+00  0.0000000000000000e+00  0.0000000000000000e+00  0.0000000000000000e+00  0.0000000000000000e+00  0.0000000000000000e+00  0.0000000000000000e+00  0.0000000000000000e+00  0.0000000000000000e+00  0.0000000000000000e+00  0.0000000000000000e+00  0.0000000000000000e+00  0.0000000000000000e+00  0.0000000000000000e+00  0.0000000000000000e+00  0.0000000000000000e+00  0.0000000000000000e+00  0.0000000000000000e+00  0.0000000000000000e+00  0.0000000000000000e+00  0.0000000000000000e+00  0.0000000000000000e+00  0.0000000000000000e+00  0.0000000000000000e+00  0.0000000000000000e+00  0.0000000000000000e+00  0.0000000000000000e+00  0.0000000000000000e+00  0.0000000000000000e+00  0.0000000000000000e+00  0.0000000000000000e+00  0.0000000000000000e+00  0.0000000000000000e+00  0.0000000000000000e+00  0.0000000000000000e+00  0.0000000000000000e+00  0.0000000000000000e+00  0.0000000000000000e+00  0.0000000000000000e+00  0.0000000000000000e+00  0.0000000000000000e+00  0.0000000000000000e+00  0.0000000000000000e+00  0.0000000000000000e+00  0.0000000000000000e+00  0.0000000000000000e+00  0.0000000000000000e+00  0.0000000000000000e+00  0.0000000000000000e+00  0.0000000000000000e+00  0.0000000000000000e+00  0.0000000000000000e+00  0.0000000000000000e+00  0.0000000000000000e+00  0.0000000000000000e+00  0.0000000000000000e+00  0.0000000000000000e+00  0.0000000000000000e+00  0.0000000000000000e+00  0.0000000000000000e+00  0.0000000000000000e+00  0.0000000000000000e+00  0.0000000000000000e+00  0.0000000000000000e+00  0.0000000000000000e+00  0.0000000000000000e+00  0.0000000000000000e+00  0.0000000000000000e+00  0.0000000000000000e+00  0.0000000000000000e+00  0.0000000000000000e+00  0.0000000000000000e+00  0.0000000000000000e+00  0.0000000000000000e+00  0.0000000000000000e+00  0.0000000000000000e+00  0.0000000000000000e+00  0.0000000000000000e+00  0.0000000000000000e+00  0.0000000000000000e+00  0.0000000000000000e+00  0.0000000000000000e+00  0.0000000000000000e+00  0.0000000000000000e+00  0.0000000000000000e+00  0.0000000000000000e+00  0.0000000000000000e+00  0.0000000000000000e+00  0.0000000000000000e+00  0.0000000000000000e+00  0.0000000000000000e+00  0.0000000000000000e+00  0.0000000000000000e+00  0.0000000000000000e+00  0.0000000000000000e+00  0.0000000000000000e+00  0.0000000000000000e+00  0.0000000000000000e+00  0.0000000000000000e+00  0.0000000000000000e+00  0.0000000000000000e+00  0.0000000000000000e+00  0.0000000000000000e+00  0.0000000000000000e+00  0.0000000000000000e+00  0.0000000000000000e+00  0.0000000000000000e+00  0.0000000000000000e+00  0.0000000000000000e+00  0.0000000000000000e+00  0.0000000000000000e+00  0.0000000000000000e+00  0.0000000000000000e+00  0.0000000000000000e+00  0.0000000000000000e+00  0.0000000000000000e+00  0.0000000000000000e+00  0.0000000000000000e+00  0.0000000000000000e+00  0.0000000000000000e+00  0.0000000000000000e+00  0.0000000000000000e+00  0.0000000000000000e+00  0.0000000000000000e+00  0.0000000000000000e+00  0.0000000000000000e+00  0.0000000000000000e+00  0.0000000000000000e+00  0.0000000000000000e+00  0.0000000000000000e+00  0.0000000000000000e+00  0.0000000000000000e+00  0.0000000000000000e+00  0.0000000000000000e+00  0.0000000000000000e+00  0.0000000000000000e+00  0.0000000000000000e+00  0.0000000000000000e+00  0.0000000000000000e+00  0.0000000000000000e+00  0.0000000000000000e+00  0.0000000000000000e+00  0.0000000000000000e+00  0.0000000000000000e+00  0.0000000000000000e+00  0.0000000000000000e+00  0.0000000000000000e+00  0.0000000000000000e+00  0.0000000000000000e+00  0.0000000000000000e+00  0.0000000000000000e+00  0.0000000000000000e+00  0.0000000000000000e+00  0.0000000000000000e+00  0.0000000000000000e+00  0.0000000000000000e+00  0.0000000000000000e+00  0.0000000000000000e+00  0.0000000000000000e+00  0.0000000000000000e+00  0.0000000000000000e+00  0.0000000000000000e+00  0.0000000000000000e+00  0.0000000000000000e+00  0.0000000000000000e+00  0.0000000000000000e+00  0.0000000000000000e+00  0.0000000000000000e+00  0.0000000000000000e+00  0.0000000000000000e+00  0.0000000000000000e+00  0.0000000000000000e+00  0.0000000000000000e+00  0.0000000000000000e+00  0.0000000000000000e+00  0.0000000000000000e+00  0.0000000000000000e+00  0.0000000000000000e+00  0.0000000000000000e+00  0.0000000000000000e+00  0.0000000000000000e+00  0.0000000000000000e+00  0.0000000000000000e+00  0.0000000000000000e+00  0.0000000000000000e+00  0.0000000000000000e+00  0.0000000000000000e+00  0.0000000000000000e+00  0.0000000000000000e+00  0.0000000000000000e+00  0.0000000000000000e+00  0.0000000000000000e+00  0.0000000000000000e+00  0.0000000000000000e+00  0.0000000000000000e+00  0.0000000000000000e+00  0.0000000000000000e+00  0.0000000000000000e+00  0.0000000000000000e+00  0.0000000000000000e+00  0.0000000000000000e+00  0.0000000000000000e+00  0.0000000000000000e+00  0.0000000000000000e+00  0.0000000000000000e+00  0.0000000000000000e+00  0.0000000000000000e+00  0.0000000000000000e+00  0.0000000000000000e+00  0.0000000000000000e+00  0.0000000000000000e+00  0.0000000000000000e+00  0.0000000000000000e+00  0.0000000000000000e+00  0.0000000000000000e+00  0.0000000000000000e+00  0.0000000000000000e+00  0.0000000000000000e+00  0.0000000000000000e+00  0.0000000000000000e+00  0.0000000000000000e+00  0.0000000000000000e+00  0.0000000000000000e+00  0.0000000000000000e+00  0.0000000000000000e+00  0.0000000000000000e+00  0.0000000000000000e+00  0.0000000000000000e+00  0.0000000000000000e+00  0.0000000000000000e+00  0.0000000000000000e+00  0.0000000000000000e+00  0.0000000000000000e+00  0.0000000000000000e+00  0.0000000000000000e+00  0.0000000000000000e+00  0.0000000000000000e+00  0.0000000000000000e+00  0.0000000000000000e+00  0.0000000000000000e+00  0.0000000000000000e+00  0.0000000000000000e+00  0.0000000000000000e+00  0.0000000000000000e+00  0.0000000000000000e+00  0.0000000000000000e+00  0.0000000000000000e+00  0.0000000000000000e+00  0.0000000000000000e+00  0.0000000000000000e+00  0.0000000000000000e+00  0.0000000000000000e+00  0.0000000000000000e+00  0.0000000000000000e+00  0.0000000000000000e+00  0.0000000000000000e+00  0.0000000000000000e+00  0.0000000000000000e+00  0.0000000000000000e+00  0.0000000000000000e+00  0.0000000000000000e+00  0.0000000000000000e+00  0.0000000000000000e+00  0.0000000000000000e+00  0.0000000000000000e+00  0.0000000000000000e+00  0.0000000000000000e+00  0.0000000000000000e+00  0.0000000000000000e+00  0.0000000000000000e+00  0.0000000000000000e+00  0.0000000000000000e+00  0.0000000000000000e+00  0.0000000000000000e+00  0.0000000000000000e+00  0.0000000000000000e+00  0.0000000000000000e+00  0.0000000000000000e+00  0.0000000000000000e+00  0.0000000000000000e+00  0.0000000000000000e+00  0.0000000000000000e+00  0.0000000000000000e+00  0.0000000000000000e+00  0.0000000000000000e+00  0.0000000000000000e+00  0.0000000000000000e+00  0.0000000000000000e+00  0.0000000000000000e+00  0.0000000000000000e+00  0.0000000000000000e+00  0.0000000000000000e+00  0.0000000000000000e+00  0.0000000000000000e+00  0.0000000000000000e+00  0.0000000000000000e+00  0.0000000000000000e+00  0.0000000000000000e+00  0.0000000000000000e+00  0.0000000000000000e+00  0.0000000000000000e+00  0.0000000000000000e+00  0.0000000000000000e+00  0.0000000000000000e+00  0.0000000000000000e+00  0.0000000000000000e+00  0.0000000000000000e+00  0.0000000000000000e+00  0.0000000000000000e+00  0.0000000000000000e+00  0.0000000000000000e+00  0.0000000000000000e+00  0.0000000000000000e+00  0.0000000000000000e+00  0.0000000000000000e+00  0.0000000000000000e+00  0.0000000000000000e+00  0.0000000000000000e+00  0.0000000000000000e+00  0.0000000000000000e+00  0.0000000000000000e+00  0.0000000000000000e+00  0.0000000000000000e+00  0.0000000000000000e+00  0.0000000000000000e+00  0.0000000000000000e+00  0.0000000000000000e+00  0.0000000000000000e+00  0.0000000000000000e+00  0.0000000000000000e+00  0.0000000000000000e+00  0.0000000000000000e+00  0.0000000000000000e+00  0.0000000000000000e+00  0.0000000000000000e+00  0.0000000000000000e+00  0.0000000000000000e+00  0.0000000000000000e+00  0.0000000000000000e+00  0.0000000000000000e+00  0.0000000000000000e+00  0.0000000000000000e+00  0.0000000000000000e+00  0.0000000000000000e+00  0.0000000000000000e+00  0.0000000000000000e+00  0.0000000000000000e+00  0.0000000000000000e+00  0.0000000000000000e+00  0.0000000000000000e+00  0.0000000000000000e+00  0.0000000000000000e+00  0.0000000000000000e+00  0.0000000000000000e+00  0.0000000000000000e+00  0.0000000000000000e+00  0.0000000000000000e+00  0.0000000000000000e+00  0.0000000000000000e+00  0.0000000000000000e+00  0.0000000000000000e+00  0.0000000000000000e+00  0.0000000000000000e+00  0.0000000000000000e+00  0.0000000000000000e+00  0.0000000000000000e+00  0.0000000000000000e+00  0.0000000000000000e+00  0.0000000000000000e+00  0.0000000000000000e+00  0.0000000000000000e+00  0.0000000000000000e+00  0.0000000000000000e+00  0.0000000000000000e+00  0.0000000000000000e